 Gaussian 09, Revision C.01,
 Gaussian 09:  EM64L-G09RevC.01 23-Sep-2011

 ---------------------------------------------------------------------
 #p Sp, B3LYP/STO-3G formcheck pop=full punch=archive scf=Tight nosymm
 ---------------------------------------------------------------------

 (Enter /data_node1/taka/gaussian/gaussian09-bin/tar/g09/l101.exe)
 -------
 comment
 -------
 Charge =  0 Multiplicity = 1

                          Input orientation:
 ---------------------------------------------------------------------
 Center     Atomic      Atomic             Coordinates (Angstroms)
 Number     Number       Type             X           Y           Z
 ---------------------------------------------------------------------
      1          1           0        0.673439    0.869759    0.000000
      2          1           0        0.673439   -0.869759    0.000000
      3          8           0        0.000000    0.000000    0.000000
 ---------------------------------------------------------------------

 SCF Done:  E(RB3LYP) =  -75.3119607085     A.U. after    9 cycles

 Alpha  occ. eigenvalues --  -18.85583  -0.88066  -0.39189  -0.24031  -0.14187
 Alpha virt. eigenvalues --    0.24000   0.33500

 Mulliken atomic charges:
              1
     1  H    0.126812
     2  H    0.126812
     3  O   -0.253623
 Sum of Mulliken atomic charges =   0.00000

 Dipole moment (field-independent basis, Debye):
    X=              1.4358    Y=              0.0000    Z=              0.0000  Tot=              1.4358
 Quadrupole moment (field-independent basis, Debye-Ang):
   XX=             -5.0019   YY=             -4.3458   ZZ=             -6.2135
   XY=              0.0000   XZ=              0.0000   YZ=              0.0000

 Normal termination of Gaussian 09 at Tue Feb  3 17:13:40 2015.
